
#(C) 2024 by FIZ Karlsruhe - Leibniz Institute for Information Infrastructure.  All rights reserved.
data_230496-ICSD
_database_code_ICSD 230496
_audit_creation_date 2019-02-01
_chemical_name_common 'Cesium lead chloride (1/1/3)'
_chemical_formula_structural 'Cs Pb Cl3'
_chemical_formula_sum 'Cl3 Cs1 Pb1'
_chemical_name_structure_type Perovskite#GdFeO3
_exptl_crystal_density_diffrn 4.23
_citation_title

;
Pressure-induced structural evolution and optical properties of metal-halide
perovskite CsPbCl3
;
loop_
_citation_id
_citation_journal_full
_citation_year
_citation_journal_volume
_citation_page_first
_citation_page_last
_citation_journal_id_ASTM
primary 'Journal of Physical Chemistry C' 2018 122 15220 15225 JPCCCK
loop_
_citation_author_citation_id
_citation_author_name
primary 'Zhang, Long'
primary 'Wang, Lingrui'
primary 'Wang, Kai'
primary 'Zou, Bo'
_cell_length_a 7.86
_cell_length_b 7.92
_cell_length_c 11.24
_cell_angle_alpha 90.
_cell_angle_beta 90.
_cell_angle_gamma 90.
_cell_volume 699.7
_cell_formula_units_Z 4
_space_group_name_H-M_alt 'P b n m'
_space_group_IT_number 62
loop_
_space_group_symop_id
_space_group_symop_operation_xyz
1 '-x+1/2, y+1/2, z'
2 'x, y, -z+1/2'
3 'x+1/2, -y+1/2, z+1/2'
4 '-x, -y, -z'
5 'x+1/2, -y+1/2, -z'
6 '-x, -y, z+1/2'
7 '-x+1/2, y+1/2, -z+1/2'
8 'x, y, z'
loop_
_atom_type_symbol
_atom_type_oxidation_number
Pb2+ 2
Cs1+ 1
Cl1- -1
loop_
_atom_site_label
_atom_site_type_symbol
_atom_site_symmetry_multiplicity
_atom_site_Wyckoff_symbol
_atom_site_fract_x
_atom_site_fract_y
_atom_site_fract_z
_atom_site_U_iso_or_equiv
_atom_site_occupancy
Pb1 Pb2+ 4 b 0.5 0 0 0.05019 1.
Cs1 Cs1+ 4 c 0.99 0.971 0.25 0.09686 1.
Cl1 Cl1- 4 c 0.05024 0.5351 0.25 0.12572 1.
Cl2 Cl1- 8 d 0.8044 0.19584 0.03567 1. 1.
#End of TTdata_230496-ICSD