
#(C) 2024 by FIZ Karlsruhe - Leibniz Institute for Information Infrastructure.  All rights reserved.
data_23763-ICSD
_database_code_ICSD 23763
_audit_creation_date 1980-01-01
_audit_update_record 2008-02-01
_chemical_name_common 'Lead iodide'
_chemical_formula_structural 'Pb I2'
_chemical_formula_sum 'I2 Pb1'
_chemical_name_structure_type CdI2(hP21)
_exptl_crystal_density_diffrn 6.1
_citation_title

;
Crystal Structures of Three Polytypes of Lead Iodide: Correlation Between
Phenomena of Arcing and Polytypism
;
loop_
_citation_id
_citation_journal_full
_citation_year
_citation_journal_volume
_citation_page_first
_citation_page_last
_citation_journal_id_ASTM
primary

;
Acta Crystallographica, Section A: Crystal Physics, Diffraction, Theoretical
and General Crystallography
; 1970 26 140 144 ACACBN
loop_
_citation_author_citation_id
_citation_author_name
primary 'Agrawal, V.K.'
primary 'Chadha, G.K.'
primary 'Trigunayat, G.C.'
_cell_length_a 4.557
_cell_length_b 4.557
_cell_length_c 48.853
_cell_angle_alpha 90.
_cell_angle_beta 90.
_cell_angle_gamma 120.
_cell_volume 878.58
_cell_formula_units_Z 7
_space_group_name_H-M_alt 'P 3 m 1'
_space_group_IT_number 156
loop_
_space_group_symop_id
_space_group_symop_operation_xyz
1 '-x+y, y, z'
2 'x, x-y, z'
3 '-y, -x, z'
4 '-x+y, -x, z'
5 '-y, x-y, z'
6 'x, y, z'
loop_
_atom_type_symbol
_atom_type_oxidation_number
Pb2+ 2
I1- -1
loop_
_atom_site_label
_atom_site_type_symbol
_atom_site_symmetry_multiplicity
_atom_site_Wyckoff_symbol
_atom_site_fract_x
_atom_site_fract_y
_atom_site_fract_z
_atom_site_B_iso_or_equiv
_atom_site_occupancy
Pb1 Pb2+ 1 a 0 0 0.895 . 1.
Pb2 Pb2+ 1 b 0.3333 0.6667 0.038 . 1.
Pb3 Pb2+ 1 b 0.3333 0.6667 0.181 . 1.
Pb4 Pb2+ 1 b 0.3333 0.6667 0.324 . 1.
Pb5 Pb2+ 1 b 0.3333 0.6667 0.466 . 1.
Pb6 Pb2+ 1 b 0.3333 0.6667 0.609 . 1.
Pb7 Pb2+ 1 b 0.3333 0.6667 0.752 . 1.
I1 I1- 1 a 0 0 0 . 1.
I2 I1- 1 a 0 0 0.143 . 1.
I3 I1- 1 a 0 0 0.286 . 1.
I4 I1- 1 a 0 0 0.429 . 1.
I5 I1- 1 a 0 0 0.571 . 1.
I6 I1- 1 a 0 0 0.714 . 1.
I7 I1- 1 c 0.6667 0.3333 0.076 . 1.
I8 I1- 1 c 0.6667 0.3333 0.219 . 1.
I9 I1- 1 c 0.6667 0.3333 0.361 . 1.
I10 I1- 1 c 0.6667 0.3333 0.504 . 1.
I11 I1- 1 c 0.6667 0.3333 0.647 . 1.
I12 I1- 1 c 0.6667 0.3333 0.79 . 1.
I13 I1- 1 c 0.6667 0.3333 0.933 . 1.
I14 I1- 1 b 0.3333 0.6667 0.857 . 1.
#End of TTdata_23763-ICSD