
#(C) 2024 by FIZ Karlsruhe - Leibniz Institute for Information Infrastructure.  All rights reserved.
data_239760-ICSD
_database_code_ICSD 239760
_audit_creation_date 2016-08-01
_chemical_name_common 'Lead dibromide'
_chemical_formula_structural 'Pb Br2'
_chemical_formula_sum 'Br2 Pb1'
_chemical_name_structure_type Cotunnite#PbCl2
_exptl_crystal_density_diffrn 6.76
_diffrn_ambient_temperature 150.
_citation_title
'New Sr Pb3 Br8 crystals: Growth, crystal structure and optical properties'
loop_
_citation_id
_citation_journal_full
_citation_year
_citation_journal_volume
_citation_page_first
_citation_page_last
_citation_journal_id_ASTM
primary 'Journal of Alloys and Compounds' 2016 682 832 838 JALCEU
loop_
_citation_author_citation_id
_citation_author_name
primary 'Isaenko, Ludmila I.'
primary 'Goloshumova, Alina A.'
primary 'Yelisseyev, Alexander P.'
primary 'Shubin, Yuri V.'
primary 'Khyzhun, O.Y.'
primary 'Naumov, Dmitrii Yu.'
primary 'Tarasova, Alexandra Yu.'
_cell_length_a 8.0256(4)
_cell_length_b 4.7103(3)
_cell_length_c 9.5398(5)
_cell_angle_alpha 90.
_cell_angle_beta 90.
_cell_angle_gamma 90.
_cell_volume 360.63
_cell_formula_units_Z 4
_space_group_name_H-M_alt 'P n m a'
_space_group_IT_number 62
loop_
_space_group_symop_id
_space_group_symop_operation_xyz
1 'x+1/2, y, -z+1/2'
2 'x, -y+1/2, z'
3 '-x+1/2, y+1/2, z+1/2'
4 '-x, -y, -z'
5 '-x+1/2, -y, z+1/2'
6 '-x, y+1/2, -z'
7 'x+1/2, -y+1/2, -z+1/2'
8 'x, y, z'
loop_
_atom_type_symbol
_atom_type_oxidation_number
Pb2+ 2
Br1- -1
loop_
_atom_site_label
_atom_site_type_symbol
_atom_site_symmetry_multiplicity
_atom_site_Wyckoff_symbol
_atom_site_fract_x
_atom_site_fract_y
_atom_site_fract_z
_atom_site_U_iso_or_equiv
_atom_site_occupancy
Pb1 Pb2+ 4 c 0.76587(4) 0.25 0.41237(3) 0.01221(17) 1
Br1 Br1- 4 c 0.64198(10) -0.25 0.57863(6) 0.0074(2) 1
Br2 Br1- 4 c 0.98106(9) 0.25 0.66200(7) 0.0091(2) 1
loop_
_atom_site_aniso_label
_atom_site_aniso_type_symbol
_atom_site_aniso_U_11
_atom_site_aniso_U_22
_atom_site_aniso_U_33
_atom_site_aniso_U_12
_atom_site_aniso_U_13
_atom_site_aniso_U_23
Pb1 Pb2+ 0.0170(2) 0.0148(2) 0.0048(2) 0. 0.00145(9) 0.
Br1 Br1- 0.0112(4) 0.0095(4) 0.0016(3) 0. 0.0002(2) 0.
Br2 Br1- 0.0125(3) 0.0116(3) 0.0033(3) 0. -0.0022(2) 0.
#End of TTdata_239760-ICSD