
#(C) 2024 by FIZ Karlsruhe - Leibniz Institute for Information Infrastructure.  All rights reserved.
data_243734-ICSD
_database_code_ICSD 243734
_audit_creation_date 2017-08-01
_chemical_name_common 'Cesium lead trichloride'
_chemical_formula_structural 'Cs Pb Cl3'
_chemical_formula_sum 'Cl3 Cs1 Pb1'
_chemical_name_structure_type Perovskite#GdFeO3
_exptl_crystal_density_diffrn 4.22
_citation_title

;
Cs1-xRbxPbCl3 and Cs1-xRbxPbBr3 solid solutions: understanding octahedral
tilting in lead halide perovskites
;
loop_
_citation_id
_citation_journal_full
_citation_year
_citation_journal_volume
_citation_page_first
_citation_page_last
_citation_journal_id_ASTM
primary 'Chemistry of Materials' 2017 29 3507 3514 CMATEX
loop_
_citation_author_citation_id
_citation_author_name
primary 'Linaburg, Matthew R.'
primary 'McClure, Eric T.'
primary 'Majher, Jackson D.'
primary 'Woodward, Patrick M.'
_cell_length_a 7.901931(14)
_cell_length_b 11.247778(11)
_cell_length_c 7.899278(14)
_cell_angle_alpha 90
_cell_angle_beta 90
_cell_angle_gamma 90
_cell_volume 702.08
_cell_formula_units_Z 4
_space_group_name_H-M_alt 'P n m a'
_space_group_IT_number 62
loop_
_space_group_symop_id
_space_group_symop_operation_xyz
1 'x+1/2, y, -z+1/2'
2 'x, -y+1/2, z'
3 '-x+1/2, y+1/2, z+1/2'
4 '-x, -y, -z'
5 '-x+1/2, -y, z+1/2'
6 '-x, y+1/2, -z'
7 'x+1/2, -y+1/2, -z+1/2'
8 'x, y, z'
loop_
_atom_type_symbol
_atom_type_oxidation_number
Cs1+ 1
Pb2+ 2
Cl1- -1
loop_
_atom_site_label
_atom_site_type_symbol
_atom_site_symmetry_multiplicity
_atom_site_Wyckoff_symbol
_atom_site_fract_x
_atom_site_fract_y
_atom_site_fract_z
_atom_site_B_iso_or_equiv
_atom_site_occupancy
Cs1 Cs1+ 4 c 0.51235(14) 0.25 0.00262(20) 5.356(14) 1
Pb1 Pb2+ 4 a 0 0 0 1.6029(54) 1
Cl1 Cl1- 8 d 0.21138(60) -0.01995(21) 0.71287(60) 4.706(54) 1
Cl2 Cl1- 4 c -0.00364(54) 0.25 -0.03346(49) 5.648(79) 1
#End of TTdata_243734-ICSD