
#(C) 2024 by FIZ Karlsruhe - Leibniz Institute for Information Infrastructure.  All rights reserved.
data_32306-ICSD
_database_code_ICSD 32306
_audit_creation_date 2022-02-01
_chemical_name_common 'Cesium triiodidoplumbate'
_chemical_formula_structural 'Cs Pb I3'
_chemical_formula_sum 'Cs1 I3 Pb1'
_chemical_name_structure_type Perovskite#GdFeO3
_exptl_crystal_density_diffrn 5.04
_diffrn_ambient_temperature 295.
_citation_title

;
Understanding the instability of the halide perovskite CsPbI$_3$ through
temperature-dependent structural analysis
;
loop_
_citation_id
_citation_journal_full
_citation_year
_citation_journal_volume
_citation_page_first
_citation_page_last
_citation_journal_id_ASTM
primary 'Advanced Materials (Weinheim, Germany)' 2020 32 '' '' ADVMEW
loop_
_citation_author_citation_id
_citation_author_name
primary 'Straus, Daniel B.'
primary 'Guo, Shu'
primary 'Abeykoon, A.M. Milinda'
primary 'Cava, Robert J.'
_cell_length_a 8.8637(8)
_cell_length_b 12.4838(12)
_cell_length_c 8.5783(8)
_cell_angle_alpha 90
_cell_angle_beta 90
_cell_angle_gamma 90
_cell_volume 949.21
_cell_formula_units_Z 4
_space_group_name_H-M_alt 'P n m a'
_space_group_IT_number 62
loop_
_space_group_symop_id
_space_group_symop_operation_xyz
1 'x+1/2, y, -z+1/2'
2 'x, -y+1/2, z'
3 '-x+1/2, y+1/2, z+1/2'
4 '-x, -y, -z'
5 '-x+1/2, -y, z+1/2'
6 '-x, y+1/2, -z'
7 'x+1/2, -y+1/2, -z+1/2'
8 'x, y, z'
loop_
_atom_type_symbol
_atom_type_oxidation_number
Pb2+ 2
I1- -1
Cs1+ 1
loop_
_atom_site_label
_atom_site_type_symbol
_atom_site_symmetry_multiplicity
_atom_site_Wyckoff_symbol
_atom_site_fract_x
_atom_site_fract_y
_atom_site_fract_z
_atom_site_U_iso_or_equiv
_atom_site_occupancy
Pb1 Pb2+ 4 b 0. 0.5 0.5 0.03183(13) 1
I1 I1- 8 d 0.30130(9) 0.53272(7) 0.30445(9) 0.0557(2) 1
I2 I1- 4 c 0.00303(16) 0.25 0.43542(16) 0.0708(4) 1
Cs1 Cs1+ 4 c 0.56158(17) 0.75 0.47998(17) 0.0794(4) 1
loop_
_atom_site_aniso_label
_atom_site_aniso_type_symbol
_atom_site_aniso_U_11
_atom_site_aniso_U_22
_atom_site_aniso_U_33
_atom_site_aniso_U_12
_atom_site_aniso_U_13
_atom_site_aniso_U_23
Pb1 Pb2+ 0.0303(2) 0.0293(2) 0.0359(2) -0.0008(2) 0.0004(3) 0.0018(2)
I1 I1- 0.0450(4) 0.0725(5) 0.0496(4) -0.0044(4) 0.0220(3) -0.0030(4)
I2 I1- 0.0951(9) 0.0217(4) 0.0956(9) 0. -0.0190(8) 0.
Cs1 Cs1+ 0.0859(9) 0.0609(7) 0.0913(9) 0. -0.0242(8) 0.
#End of TTdata_32306-ICSD