
#(C) 2024 by FIZ Karlsruhe - Leibniz Institute for Information Infrastructure.  All rights reserved.
data_42013-ICSD
_database_code_ICSD 42013
_audit_creation_date 2000-07-15
_audit_update_record 2006-04-01
_chemical_name_common 'Lead iodide'
_chemical_formula_structural 'Pb I2'
_chemical_formula_sum 'I2 Pb1'
_chemical_name_structure_type CdI2(hP3)
_exptl_crystal_density_diffrn 6.1
_citation_title

;
Common polytypes of Pb I2 at low and high temperatures and the 2H - 12R
transformation
;
loop_
_citation_id
_citation_journal_full
_citation_year
_citation_journal_volume
_citation_page_first
_citation_page_last
_citation_journal_id_ASTM
primary

;
Acta Crystallographica, Section A: Crystal Physics, Diffraction, Theoretical
and General Crystallography
; 1975 31 823 824 ACACBN
loop_
_citation_author_citation_id
_citation_author_name
primary 'Minagawa, T.'
_cell_length_a 4.557
_cell_length_b 4.557
_cell_length_c 6.979
_cell_angle_alpha 90.
_cell_angle_beta 90.
_cell_angle_gamma 120.
_cell_volume 125.51
_cell_formula_units_Z 1
_space_group_name_H-M_alt 'P -3 m 1'
_space_group_IT_number 164
loop_
_space_group_symop_id
_space_group_symop_operation_xyz
1 'x-y, -y, -z'
2 '-x, -x+y, -z'
3 'y, x, -z'
4 'x-y, x, -z'
5 'y, -x+y, -z'
6 '-x, -y, -z'
7 '-x+y, y, z'
8 'x, x-y, z'
9 '-y, -x, z'
10 '-x+y, -x, z'
11 '-y, x-y, z'
12 'x, y, z'
loop_
_atom_type_symbol
_atom_type_oxidation_number
Pb2+ 2
I1- -1
loop_
_atom_site_label
_atom_site_type_symbol
_atom_site_symmetry_multiplicity
_atom_site_Wyckoff_symbol
_atom_site_fract_x
_atom_site_fract_y
_atom_site_fract_z
_atom_site_B_iso_or_equiv
_atom_site_occupancy
Pb1 Pb2+ 1 a 0 0 0 . 1.
I1 I1- 2 d 0.3333 0.6667 0.268 2. 1.
loop_
_atom_site_aniso_label
_atom_site_aniso_type_symbol
_atom_site_aniso_B_11
_atom_site_aniso_B_22
_atom_site_aniso_B_33
_atom_site_aniso_B_12
_atom_site_aniso_B_13
_atom_site_aniso_B_23
Pb1 Pb2+ 0.7 0.7 3. 0.35 0 0
#End of TTdata_42013-ICSD