
#(C) 2024 by FIZ Karlsruhe - Leibniz Institute for Information Infrastructure.  All rights reserved.
data_434338-ICSD
_database_code_ICSD 434338
_audit_creation_date 2018-08-01
_chemical_name_common 'Cesium lead triiodide - gamma'
_chemical_formula_structural 'Cs Pb I3'
_chemical_formula_sum 'Cs1 I3 Pb1'
_chemical_name_structure_type Perovskite#GdFeO3
_exptl_crystal_density_diffrn 5.02
_diffrn_ambient_temperature 298.
_citation_title

;
Coherent nanotwins and dynamic disorder in cesium lead halide perovskite
nanocrystals
;
loop_
_citation_id
_citation_journal_full
_citation_year
_citation_journal_volume
_citation_page_first
_citation_page_last
_citation_journal_id_ASTM
primary 'ACS Nano' 2017 11 3819 3831 ANCAC3
loop_
_citation_author_citation_id
_citation_author_name
primary 'Bertolotti, Federica'
primary 'Protesescu, Loredana'
primary 'Kovalenko, Maksym V.'
primary 'Yakunin, Sergii'
primary 'Cervellino, Antonio'
primary 'Billinge, Simon J. L.'
primary 'Terban, Maxwell W.'
primary 'Pedersen, Jan Skov'
primary 'Masciocchi, Norberto'
primary 'Guagliardi, Antonietta'
_cell_length_a 8.6124(6)
_cell_length_b 8.8454(6)
_cell_length_c 12.5243(7)
_cell_angle_alpha 90
_cell_angle_beta 90
_cell_angle_gamma 90
_cell_volume 954.1
_cell_formula_units_Z 4
_space_group_name_H-M_alt 'P b n m'
_space_group_IT_number 62
loop_
_space_group_symop_id
_space_group_symop_operation_xyz
1 '-x+1/2, y+1/2, z'
2 'x, y, -z+1/2'
3 'x+1/2, -y+1/2, z+1/2'
4 '-x, -y, -z'
5 'x+1/2, -y+1/2, -z'
6 '-x, -y, z+1/2'
7 '-x+1/2, y+1/2, -z+1/2'
8 'x, y, z'
loop_
_atom_type_symbol
_atom_type_oxidation_number
Cs1+ 1
Pb2+ 2
I1- -1
loop_
_atom_site_label
_atom_site_type_symbol
_atom_site_symmetry_multiplicity
_atom_site_Wyckoff_symbol
_atom_site_fract_x
_atom_site_fract_y
_atom_site_fract_z
_atom_site_B_iso_or_equiv
_atom_site_occupancy
Cs1 Cs1+ 4 c 0.9801(6) 0.9473(4) 0.25 8.54(13) 1
Pb1 Pb2+ 4 b 0.5 0 0 3.12(4) 1
I1 I1- 4 c 0.0566(4) 0.5084(6) 0.25 5.21(13) 1
I2 I1- 8 d 0.8070(3) 0.1968(3) 0.0236(2) 3.75(6) 1
#End of TTdata_434338-ICSD