
#(C) 2024 by FIZ Karlsruhe - Leibniz Institute for Information Infrastructure.  All rights reserved.
data_44540-ICSD
_database_code_ICSD 44540
_audit_creation_date 2022-08-01
_chemical_name_common 'Tetracesium hexabromidoplumbate((II)'
_chemical_formula_structural 'Cs4 Pb Br6'
_chemical_formula_sum 'Br6 Cs4 Pb1'
_chemical_name_structure_type K4CdCl6
_exptl_crystal_density_diffrn 4.31
_citation_title

;
Pressure-induced structural and optical transitions in luminescent bulk
Cs\(_4\)PbBr\(_6\)
;
loop_
_citation_id
_citation_journal_full
_citation_year
_citation_journal_volume
_citation_page_first
_citation_page_last
_citation_journal_id_ASTM
primary 'Journal of Physical Chemistry C' 2022 126 541 550 JPCCCK
loop_
_citation_author_citation_id
_citation_author_name
primary 'Castro Ferreira, W.'
primary 'Araújo, B.S.'
primary 'Gómez, M.A.P.'
primary 'Medeiros, F.E.O.'
primary 'Araujo Paschoal, C.W. de'
primary 'Silva, C.B. da'
primary 'Freire, P.T.C.'
primary 'Kaneko, U.F.'
primary 'Ardito, F.M.'
primary 'Souza-Neto, N.M.'
primary 'Ayala, A.P.'
_cell_length_a 13.7033(5)
_cell_length_b 13.7033(5)
_cell_length_c 17.3358(9)
_cell_angle_alpha 90.
_cell_angle_beta 90.
_cell_angle_gamma 120.
_cell_volume 2819.19
_cell_formula_units_Z 6
_space_group_name_H-M_alt 'R -3 c H'
_space_group_IT_number 167
loop_
_space_group_symop_id
_space_group_symop_operation_xyz
1 'x-y, -y, -z+1/2'
2 '-x, -x+y, -z+1/2'
3 'y, x, -z+1/2'
4 'x-y, x, -z'
5 'y, -x+y, -z'
6 '-x, -y, -z'
7 '-x+y, y, z+1/2'
8 'x, x-y, z+1/2'
9 '-y, -x, z+1/2'
10 '-x+y, -x, z'
11 '-y, x-y, z'
12 'x, y, z'
13 'x-y+2/3, -y+1/3, -z+5/6'
14 '-x+2/3, -x+y+1/3, -z+5/6'
15 'y+2/3, x+1/3, -z+5/6'
16 'x-y+2/3, x+1/3, -z+1/3'
17 'y+2/3, -x+y+1/3, -z+1/3'
18 '-x+2/3, -y+1/3, -z+1/3'
19 '-x+y+2/3, y+1/3, z+5/6'
20 'x+2/3, x-y+1/3, z+5/6'
21 '-y+2/3, -x+1/3, z+5/6'
22 '-x+y+2/3, -x+1/3, z+1/3'
23 '-y+2/3, x-y+1/3, z+1/3'
24 'x+2/3, y+1/3, z+1/3'
25 'x-y+1/3, -y+2/3, -z+1/6'
26 '-x+1/3, -x+y+2/3, -z+1/6'
27 'y+1/3, x+2/3, -z+1/6'
28 'x-y+1/3, x+2/3, -z+2/3'
29 'y+1/3, -x+y+2/3, -z+2/3'
30 '-x+1/3, -y+2/3, -z+2/3'
31 '-x+y+1/3, y+2/3, z+1/6'
32 'x+1/3, x-y+2/3, z+1/6'
33 '-y+1/3, -x+2/3, z+1/6'
34 '-x+y+1/3, -x+2/3, z+2/3'
35 '-y+1/3, x-y+2/3, z+2/3'
36 'x+1/3, y+2/3, z+2/3'
loop_
_atom_type_symbol
_atom_type_oxidation_number
Pb2+ 2
Cs1+ 1
Br1- -1
loop_
_atom_site_label
_atom_site_type_symbol
_atom_site_symmetry_multiplicity
_atom_site_Wyckoff_symbol
_atom_site_fract_x
_atom_site_fract_y
_atom_site_fract_z
_atom_site_U_iso_or_equiv
_atom_site_occupancy
Pb1 Pb2+ 6 b 0 0 0 0.0314(2) 1.
Cs1 Cs1+ 18 e 0.3333 0.29173(7) 0.91667 0.0595(5) 1.
Cs2 Cs1+ 6 a 0 0 0.25 0.0450(3) 1.
Br1 Br1- 36 f 0.69563(10) 0.52579(9) 0.23219(6) 0.0445(3) 1.
#End of TTdata_44540-ICSD