
#(C) 2024 by FIZ Karlsruhe - Leibniz Institute for Information Infrastructure.  All rights reserved.
data_84525-ICSD
_database_code_ICSD 84525
_audit_creation_date 2023-08-01
_chemical_name_common 'Cesium lead tribromide'
_chemical_formula_structural 'Cs Pb Br3'
_chemical_formula_sum 'Br3 Cs1 Pb1'
_chemical_name_structure_type Perovskite#GdFeO3
_exptl_crystal_density_diffrn 4.86
_citation_title

;
Structural, Optoelectronic and Electrochemical behavior of the
mechanochemically synthesized CsPb$_{1-x}$Na$_x$Br$_3$ (x=0 to 0.15)
;
loop_
_citation_id
_citation_journal_full
_citation_year
_citation_journal_volume
_citation_page_first
_citation_page_last
_citation_journal_id_ASTM
primary 'Journal of Solid State Chemistry' 2023 323 '' '' JSSCBI
loop_
_citation_author_citation_id
_citation_author_name
primary 'Kayalvizhi, T.'
primary 'Sathya, Ayyappan'
primary 'Perumal, Suresh'
primary 'Preethi Meher, K.R.S.'
_cell_length_a 8.19732(7)
_cell_length_b 8.24009(7)
_cell_length_c 11.74345(9)
_cell_angle_alpha 90.
_cell_angle_beta 90.
_cell_angle_gamma 90.
_cell_volume 793.23
_cell_formula_units_Z 4
_space_group_name_H-M_alt 'P b n m'
_space_group_IT_number 62
loop_
_space_group_symop_id
_space_group_symop_operation_xyz
1 '-x+1/2, y+1/2, z'
2 'x, y, -z+1/2'
3 'x+1/2, -y+1/2, z+1/2'
4 '-x, -y, -z'
5 'x+1/2, -y+1/2, -z'
6 '-x, -y, z+1/2'
7 '-x+1/2, y+1/2, -z+1/2'
8 'x, y, z'
loop_
_atom_type_symbol
_atom_type_oxidation_number
Cs1+ 1
Pb2+ 2
Br1- -1
loop_
_atom_site_label
_atom_site_type_symbol
_atom_site_symmetry_multiplicity
_atom_site_Wyckoff_symbol
_atom_site_fract_x
_atom_site_fract_y
_atom_site_fract_z
_atom_site_B_iso_or_equiv
_atom_site_occupancy
Cs1 Cs1+ 4 c 0.989(1) 0.9683(7) 0.25 . 1.
Pb1 Pb2+ 4 b 0.5 0 0 . 1.
Br1 Br1- 4 c 0.044(1) 0.502(1) 0.25 . 1.
Br2 Br1- 8 d 0.794(1) 0.199(1) 0.0268(6) . 1.
#End of TTdata_84525-ICSD